# vtk DataFile Version 3.0
vtk output
ASCII
DATASET RECTILINEAR_GRID
DIMENSIONS 16 9 1
X_COORDINATES 16 double
0 22.5 45 67.5 90 112.5 135 157.5 180 
202.5 225 247.5 270 292.5 315 337.5 
Y_COORDINATES 9 double
0 20 40 60 80 100 120 140 160 

Z_COORDINATES 1 double
0 
POINT_DATA 144
SCALARS scalars double
LOOKUP_TABLE default
6950 6950 4740 4740 6630 6630 6300 6300 6630 
6630 4250 4250 6630 6630 4910 4910 6350 6350 
4790 4790 4960 4960 4960 4960 5370 5370 7660 
7660 14100 14100 12100 12100 6630 6630 5100 5100 
5910 5910 4920 4920 4740 4740 8800 8800 12600 
12600 11900 11900 4750 5430 5430 7460 5090 2710 
5430 8140 6780 6100 7120 16400 13700 9160 19200 
17800 6470 10500 7200 6260 1880 3340 1250 4590 
9290 8450 7200 14500 11800 9700 13000 13000 8920 
6420 11100 8570 2860 5710 1780 5000 8210 7140 
5000 6070 14500 20900 21600 8210 4960 4960 5510 
5510 1650 1650 1650 1650 2200 2200 6060 6060 
5510 5510 2750 2750 6250 6250 6460 6460 5220 
5220 6250 6250 6050 6050 4190 4190 5010 5010 
5430 5430 7080 7080 9210 9210 8900 8900 7690 
7690 6160 6160 6770 6770 6770 6770 5560 5560 

